REMARK WARNING: 32 MAX_TORS EXCEEDED!!!
REMARK  77 active torsions:
REMARK  status: ('A' for Active; 'I' for Inactive)
REMARK    1  A    between atoms: N_0  and  CA_1 
REMARK    2  A    between atoms: CA_1  and  C_2 
REMARK    3  A    between atoms: CA_1  and  CB_5 
REMARK       I    between atoms: C_2  and  N_0 
REMARK    4  A    between atoms: CB_5  and  CG_6 
REMARK    5  A    between atoms: CG_6  and  CD_7 
REMARK    6  A    between atoms: CD_7  and  CE_8 
REMARK    7  A    between atoms: N_0  and  CA_1 
REMARK    8  A    between atoms: CA_1  and  CB_5 
REMARK    9  A    between atoms: CA_1  and  C_2 
REMARK       I    between atoms: C_2  and  N_0 
REMARK   10  A    between atoms: CB_5  and  CG1_6 
REMARK   11  A    between atoms: N_0  and  CA_1 
REMARK   12  A    between atoms: CA_1  and  CB_5 
REMARK   13  A    between atoms: CA_1  and  C_2 
REMARK       I    between atoms: C_2  and  N_0 
REMARK   14  A    between atoms: CB_5  and  CG_6 
REMARK   15  A    between atoms: CG_6  and  CD_7 
REMARK   16  A    between atoms: CD_7  and  CE_8 
REMARK   17  A    between atoms: N_0  and  CA_1 
REMARK   18  A    between atoms: CA_1  and  C_2 
REMARK   19  A    between atoms: CA_1  and  CB_5 
REMARK       I    between atoms: C_2  and  N_0 
REMARK   20  A    between atoms: CB_5  and  CG1_6 
REMARK   21  A    between atoms: CA_1  and  C_2 
REMARK       I    between atoms: C_2  and  N_0 
REMARK   22  A    between atoms: N_0  and  CA_1 
REMARK   23  A    between atoms: CA_1  and  CB_5 
REMARK   24  A    between atoms: CA_1  and  C_2 
REMARK       I    between atoms: C_2  and  N_0 
REMARK   25  A    between atoms: CB_5  and  CG_6 
REMARK   26  A    between atoms: N_0  and  CA_1 
REMARK   27  A    between atoms: CA_1  and  C_2 
REMARK       I    between atoms: C_2  and  N_0 
REMARK   28  A    between atoms: N_0  and  CA_1 
REMARK   29  A    between atoms: CA_1  and  C_2 
REMARK   30  A    between atoms: CA_1  and  CB_5 
REMARK       I    between atoms: C_2  and  N_0 
REMARK   31  A    between atoms: CB_5  and  CG_6 
REMARK   32  A    between atoms: CG_6  and  CD_7 
REMARK   33  A    between atoms: CD_7  and  CE_8 
REMARK   34  A    between atoms: N_0  and  CA_1 
REMARK   35  A    between atoms: CA_1  and  CB_5 
REMARK   36  A    between atoms: CA_1  and  C_2 
REMARK       I    between atoms: C_2  and  N_0 
REMARK   37  A    between atoms: N_0  and  CA_1 
REMARK   38  A    between atoms: CA_1  and  CB_5 
REMARK   39  A    between atoms: CA_1  and  C_2 
REMARK       I    between atoms: C_2  and  N_0 
REMARK   40  A    between atoms: CB_5  and  CG_6 
REMARK   41  A    between atoms: CG_6  and  CD_7 
REMARK   42  A    between atoms: CD_7  and  CE_8 
REMARK   43  A    between atoms: N_0  and  CA_1 
REMARK   44  A    between atoms: CA_1  and  C_2 
REMARK   45  A    between atoms: CA_1  and  CB_5 
REMARK       I    between atoms: C_2  and  N_0 
REMARK   46  A    between atoms: CB_5  and  CG_6 
REMARK   47  A    between atoms: N_0  and  CA_1 
REMARK   48  A    between atoms: CA_1  and  C_2 
REMARK   49  A    between atoms: CA_1  and  CB_5 
REMARK       I    between atoms: C_2  and  N_0 
REMARK   50  A    between atoms: CB_5  and  CG_6 
REMARK   51  A    between atoms: N_0  and  CA_1 
REMARK   52  A    between atoms: CA_1  and  C_2 
REMARK   53  A    between atoms: CA_1  and  CB_5 
REMARK       I    between atoms: C_2  and  N_0 
REMARK   54  A    between atoms: CB_5  and  CG_6 
REMARK   55  A    between atoms: N_0  and  CA_1 
REMARK   56  A    between atoms: CA_1  and  C_2 
REMARK   57  A    between atoms: CA_1  and  CB_5 
REMARK       I    between atoms: C_2  and  N_0 
REMARK   58  A    between atoms: N_0  and  CA_1 
REMARK   59  A    between atoms: CA_1  and  C_2 
REMARK       I    between atoms: C_2  and  N_0 
REMARK   60  A    between atoms: N_0  and  CA_1 
REMARK   61  A    between atoms: CA_1  and  C_2 
REMARK       I    between atoms: C_2  and  N_0 
REMARK   62  A    between atoms: N_0  and  CA_1 
REMARK   63  A    between atoms: CA_1  and  C_2 
REMARK   64  A    between atoms: CA_1  and  CB_5 
REMARK       I    between atoms: C_2  and  N_0 
REMARK   65  A    between atoms: CB_5  and  CG_6 
REMARK   66  A    between atoms: CG_6  and  SD_7 
REMARK   67  A    between atoms: N_0  and  CA_1 
REMARK   68  A    between atoms: CA_1  and  C_2 
REMARK   69  A    between atoms: CA_1  and  CB_5 
REMARK       I    between atoms: C_2  and  N_0 
REMARK   70  A    between atoms: CB_5  and  CG_6 
REMARK   71  A    between atoms: CG_6  and  CD_7 
REMARK   72  A    between atoms: CD_7  and  CE_8 
REMARK   73  A    between atoms: N_0  and  CA_1 
REMARK   74  A    between atoms: CA_1  and  C_2 
REMARK       I    between atoms: C_2  and  N_0 
REMARK   75  A    between atoms: N_0  and  CA_1 
REMARK   76  A    between atoms: CA_1  and  CB_5 
REMARK   77  A    between atoms: CA_1  and  C_2 
ROOT
ATOM      1  CA  LYS A  10     -10.346  42.050  13.370  0.00  0.00     0.159 C 
ENDROOT
BRANCH   1   2
ATOM      2  CB  LYS A  10      -9.130  41.419  14.072  0.00  0.00     0.032 C 
BRANCH   2   3
ATOM      3  CG  LYS A  10      -7.850  41.608  13.275  0.00  0.00     0.005 C 
BRANCH   3   4
ATOM      4  CD  LYS A  10      -6.654  40.964  13.956  0.00  0.00     0.041 C 
BRANCH   4   5
ATOM      5  CE  LYS A  10      -5.374  41.153  13.158  0.00  0.00     0.338 C 
ATOM      6  NZ  LYS A  10      -4.209  40.525  13.821  0.00  0.00     0.618 N 
ENDBRANCH   4   5
ENDBRANCH   3   4
ENDBRANCH   2   3
ENDBRANCH   1   2
BRANCH   1   7
ATOM      7  C   LYS A  10     -11.645  41.756  14.104  0.00  0.00     0.251 C 
ATOM      8  O   LYS A  10     -12.366  40.877  13.659  0.00  0.00    -0.271 OA
ATOM      9  N   ASP A  11     -11.998  42.467  15.160  0.00  0.00    -0.337 N 
ATOM     10  H   ASP A  11     -11.408  43.166  15.506  0.00  0.00     0.164 HD
BRANCH   9  11
ATOM     11  CA  ASP A  11     -13.293  42.196  15.810  0.00  0.00     0.170 C 
BRANCH  11  12
ATOM     12  C   ASP A  11     -14.446  42.507  14.889  0.00  0.00     0.252 C 
ATOM     13  N   PHE A  12     -14.370  43.578  14.119  0.00  0.00    -0.337 N 
ATOM     14  H   PHE A  12     -13.602  44.179  14.181  0.00  0.00     0.164 HD
ATOM     15  O   ASP A  11     -15.400  41.747  14.829  0.00  0.00    -0.271 OA
BRANCH  13  16
ATOM     16  CA  PHE A  12     -15.459  43.857  13.164  0.00  0.00     0.164 C 
BRANCH  16  17
ATOM     17  C   PHE A  12     -15.551  42.784  12.109  0.00  0.00     0.251 C 
ATOM     18  N   LEU A  13     -14.433  42.280  11.618  0.00  0.00    -0.338 N 
ATOM     19  H   LEU A  13     -13.566  42.630  11.902  0.00  0.00     0.164 HD
ATOM     20  O   PHE A  12     -16.644  42.363  11.763  0.00  0.00    -0.271 OA
BRANCH  18  21
ATOM     21  CA  LEU A  13     -14.508  41.183  10.637  0.00  0.00     0.159 C 
BRANCH  21  22
ATOM     22  C   LEU A  13     -15.096  39.880  11.192  0.00  0.00     0.251 C 
ATOM     23  O   LEU A  13     -15.907  39.230  10.527  0.00  0.00    -0.271 OA
ATOM     24  N   VAL A  14     -14.701  39.501  12.406  0.00  0.00    -0.338 N 
ATOM     25  H   VAL A  14     -14.071  40.052  12.910  0.00  0.00     0.164 HD
BRANCH  24  26
ATOM     26  CA  VAL A  14     -15.211  38.262  12.986  0.00  0.00     0.159 C 
BRANCH  26  27
ATOM     27  C   VAL A  14     -16.722  38.598  13.278  0.00  0.00     0.251 C 
ATOM     28  N   GLY A  15     -17.037  39.749  13.854  0.00  0.00    -0.336 N 
ATOM     29  H   GLY A  15     -16.330  40.385  14.079  0.00  0.00     0.164 HD
ATOM     30  O   VAL A  14     -17.535  37.733  12.957  0.00  0.00    -0.271 OA
BRANCH  28  31
ATOM     31  CA  GLY A  15     -18.419  40.080  14.156  0.00  0.00     0.189 C 
BRANCH  31  32
ATOM     32  C   GLY A  15     -19.324  40.033  12.965  0.00  0.00     0.253 C 
ATOM     33  N   GLY A  16     -18.862  40.608  11.853  0.00  0.00    -0.336 N 
ATOM     34  H   GLY A  16     -17.998  41.064  11.870  0.00  0.00     0.164 HD
ATOM     35  O   GLY A  15     -20.423  39.509  12.954  0.00  0.00    -0.270 OA
BRANCH  33  36
ATOM     36  CA  GLY A  16     -19.621  40.566  10.624  0.00  0.00     0.189 C 
BRANCH  36  37
ATOM     37  C   GLY A  16     -19.860  39.196  10.094  0.00  0.00     0.253 C 
ATOM     38  N   MET A  17     -18.810  38.374  10.121  0.00  0.00    -0.337 N 
ATOM     39  H   MET A  17     -17.948  38.703  10.442  0.00  0.00     0.164 HD
ATOM     40  O   GLY A  16     -20.919  38.797   9.647  0.00  0.00    -0.270 OA
BRANCH  38  41
ATOM     41  CA  MET A  17     -18.929  37.001   9.684  0.00  0.00     0.160 C 
BRANCH  41  42
ATOM     42  C   MET A  17     -19.876  36.235  10.569  0.00  0.00     0.251 C 
ATOM     43  O   MET A  17     -20.687  35.469  10.072  0.00  0.00    -0.271 OA
ATOM     44  N   LYS A  18     -19.842  36.450  11.872  0.00  0.00    -0.338 N 
ATOM     45  H   LYS A  18     -19.185  37.063  12.255  0.00  0.00     0.164 HD
BRANCH  44  46
ATOM     46  CA  LYS A  18     -20.806  35.753  12.743  0.00  0.00     0.159 C 
BRANCH  46  47
ATOM     47  C   LYS A  18     -22.218  36.288  12.445  0.00  0.00     0.251 C 
ATOM     48  O   LYS A  18     -23.143  35.492  12.289  0.00  0.00    -0.271 OA
ATOM     49  N   ALA A  19     -22.342  37.606  12.383  0.00  0.00    -0.338 N 
ATOM     50  H   ALA A  19     -21.556  38.171  12.519  0.00  0.00     0.164 HD
BRANCH  49  51
ATOM     51  CA  ALA A  19     -23.629  38.224  12.116  0.00  0.00     0.159 C 
ATOM     52  CB  ALA A  19     -23.445  39.752  12.089  0.00  0.00     0.034 C 
BRANCH  51  53
ATOM     53  C   ALA A  19     -24.246  37.783  10.776  0.00  0.00     0.251 C 
ATOM     54  N   VAL A  20     -23.447  37.738   9.711  0.00  0.00    -0.339 N 
ATOM     55  H   VAL A  20     -22.502  37.972   9.798  0.00  0.00     0.164 HD
ATOM     56  O   ALA A  19     -25.439  37.476  10.721  0.00  0.00    -0.271 OA
BRANCH  54  57
ATOM     57  CA  VAL A  20     -23.982  37.340   8.413  0.00  0.00     0.145 C 
BRANCH  57  58
ATOM     58  CB  VAL A  20     -22.976  37.735   7.317  0.00  0.00     0.028 C 
ATOM     59  CG2 VAL A  20     -22.821  39.243   7.203  0.00  0.00     0.002 C 
ATOM     60  CG1 VAL A  20     -23.395  37.224   5.948  0.00  0.00     0.002 C 
ENDBRANCH  57  58
BRANCH  57  61
ATOM     61  C   VAL A  20     -24.230  35.835   8.333  0.00  0.00     0.229 C 
ATOM     62  O   VAL A  20     -24.694  35.337   7.303  0.00  0.00    -0.286 OA
ENDBRANCH  57  61
ENDBRANCH  54  57
ENDBRANCH  51  53
ENDBRANCH  49  51
ENDBRANCH  46  47
BRANCH  46  63
ATOM     63  CB  LYS A  18     -20.456  36.013  14.219  0.00  0.00     0.032 C 
BRANCH  63  64
ATOM     64  CG  LYS A  18     -19.179  35.301  14.636  0.00  0.00     0.005 C 
BRANCH  64  65
ATOM     65  CD  LYS A  18     -18.847  35.538  16.100  0.00  0.00     0.041 C 
BRANCH  65  66
ATOM     66  CE  LYS A  18     -17.570  34.826  16.517  0.00  0.00     0.338 C 
ATOM     67  NZ  LYS A  18     -17.246  35.057  17.942  0.00  0.00     0.618 N 
ENDBRANCH  65  66
ENDBRANCH  64  65
ENDBRANCH  63  64
ENDBRANCH  46  63
ENDBRANCH  44  46
ENDBRANCH  41  42
BRANCH  41  68
ATOM     68  CB  MET A  17     -17.543  36.333   9.734  0.00  0.00     0.043 C 
BRANCH  68  69
ATOM     69  CG  MET A  17     -16.648  36.792   8.595  0.00  0.00     0.060 C 
BRANCH  69  70
ATOM     70  SD  MET A  17     -17.216  36.161   6.985  0.00  0.00    -0.139 SA
ATOM     71  CE  MET A  17     -16.582  34.455   7.002  0.00  0.00     0.069 C 
ENDBRANCH  69  70
ENDBRANCH  68  69
ENDBRANCH  41  68
ENDBRANCH  38  41
ENDBRANCH  36  37
ENDBRANCH  33  36
ENDBRANCH  31  32
ENDBRANCH  28  31
ENDBRANCH  26  27
BRANCH  26  72
ATOM     72  CB  VAL A  14     -14.464  37.911  14.286  0.00  0.00     0.029 C 
ATOM     73  CG1 VAL A  14     -15.131  36.769  15.035  0.00  0.00     0.002 C 
ATOM     74  CG2 VAL A  14     -13.026  37.493  14.021  0.00  0.00     0.002 C 
ENDBRANCH  26  72
ENDBRANCH  24  26
ENDBRANCH  21  22
BRANCH  21  75
ATOM     75  CB  LEU A  13     -13.084  40.889  10.129  0.00  0.00     0.032 C 
BRANCH  75  76
ATOM     76  CG  LEU A  13     -12.514  42.050   9.329  0.00  0.00     0.002 C 
ATOM     77  CD2 LEU A  13     -13.276  42.278   8.034  0.00  0.00     0.000 C 
ATOM     78  CD1 LEU A  13     -11.058  41.824   8.958  0.00  0.00     0.000 C 
ENDBRANCH  75  76
ENDBRANCH  21  75
ENDBRANCH  18  21
ENDBRANCH  16  17
BRANCH  16  79
ATOM     79  CB  PHE A  12     -15.192  45.210  12.479  0.00  0.00     0.058 C 
BRANCH  79  80
ATOM     80  CG  PHE A  12     -16.246  45.536  11.433  0.00  0.00    -0.020 A 
ATOM     81  CD2 PHE A  12     -15.964  45.370  10.103  0.00  0.00    -0.004 A 
ATOM     82  CE2 PHE A  12     -16.913  45.664   9.160  0.00  0.00    -0.000 A 
ATOM     83  CZ  PHE A  12     -18.144  46.123   9.547  0.00  0.00    -0.000 A 
ATOM     84  CE1 PHE A  12     -18.426  46.289  10.878  0.00  0.00    -0.000 A 
ATOM     85  CD1 PHE A  12     -17.477  45.996  11.821  0.00  0.00    -0.004 A 
ENDBRANCH  79  80
ENDBRANCH  16  79
ENDBRANCH  13  16
ENDBRANCH  11  12
BRANCH  11  86
ATOM     86  CB  ASP A  11     -13.414  43.068  17.073  0.00  0.00     0.129 C 
BRANCH  86  87
ATOM     87  CG  ASP A  11     -12.449  42.629  18.163  0.00  0.00     0.188 C 
ATOM     88  OD1 ASP A  11     -12.139  41.433  18.271  0.00  0.00    -0.647 OA
ATOM     89  OD2 ASP A  11     -11.971  43.466  18.943  0.00  0.00    -0.647 OA
ENDBRANCH  86  87
ENDBRANCH  11  86
ENDBRANCH   9  11
ENDBRANCH   1   7
BRANCH   1  90
ATOM     90  N   LYS A  10     -10.354  43.526  13.487  0.00  0.00    -0.338 N 
ATOM     91  H   LYS A  10      -9.821  43.956  14.185  0.00  0.00     0.164 HD
ATOM     92  C   VAL A   9     -11.078  44.281  12.654  0.00  0.00     0.251 C 
ATOM     93  O   VAL A   9     -11.884  43.828  11.839  0.00  0.00    -0.271 OA
BRANCH  92  94
ATOM     94  CA  VAL A   9     -10.761  45.767  12.643  0.00  0.00     0.160 C 
BRANCH  94  95
ATOM     95  CB  VAL A   9      -9.537  46.013  11.741  0.00  0.00     0.029 C 
ATOM     96  CG1 VAL A   9      -9.710  45.394  10.364  0.00  0.00     0.002 C 
ATOM     97  CG2 VAL A   9      -9.268  47.495  11.536  0.00  0.00     0.002 C 
ENDBRANCH  94  95
BRANCH  94  98
ATOM     98  N   VAL A   9     -10.470  46.248  13.986  0.00  0.00    -0.335 N 
ATOM     99  C   LYS A   8     -11.325  46.106  14.993  0.00  0.00     0.266 C 
ATOM    100  O   LYS A   8     -12.414  45.535  14.878  0.00  0.00    -0.266 OA
ATOM    101  H   VAL A   9      -9.614  46.690  14.153  0.00  0.00     0.164 HD
BRANCH  99 102
ATOM    102  CA  LYS A   8     -11.395  46.519  16.345  0.00  0.00     0.092 C 
BRANCH 102 103
ATOM    103  N   LYS A   8     -12.245  46.814  17.482  0.00  0.00    -0.323 N 
ATOM    104  C   GLY A   7     -12.530  48.073  17.807  0.00  0.00     0.257 C 
ATOM    105  O   GLY A   7     -12.111  49.032  17.160  0.00  0.00    -0.270 OA
ATOM    106  H   LYS A   8     -12.612  46.081  18.014  0.00  0.00     0.169 HD
BRANCH 104 107
ATOM    107  CA  GLY A   7     -13.753  48.436  18.619  0.00  0.00     0.189 C 
BRANCH 107 108
ATOM    108  N   GLY A   7     -14.790  47.496  18.200  0.00  0.00    -0.336 N 
ATOM    109  H   GLY A   7     -14.796  47.179  17.276  0.00  0.00     0.164 HD
ATOM    110  C   TRP A   6     -15.729  47.059  19.039  0.00  0.00     0.251 C 
ATOM    111  O   TRP A   6     -15.806  47.414  20.217  0.00  0.00    -0.271 OA
BRANCH 110 112
ATOM    112  CA  TRP A   6     -16.740  46.088  18.534  0.00  0.00     0.164 C 
BRANCH 112 113
ATOM    113  N   TRP A   6     -17.130  46.524  17.185  0.00  0.00    -0.337 N 
ATOM    114  C   PRO A   5     -18.342  46.984  16.951  0.00  0.00     0.251 C 
ATOM    115  O   PRO A   5     -19.222  46.959  17.810  0.00  0.00    -0.271 OA
ATOM    116  H   TRP A   6     -16.483  46.472  16.455  0.00  0.00     0.164 HD
BRANCH 114 117
ATOM    117  CA  PRO A   5     -18.675  47.644  15.659  0.00  0.00     0.163 C 
ATOM    118  N   PRO A   5     -19.909  47.182  15.039  0.00  0.00    -0.312 N 
ATOM    119  C   ILE A   4     -20.012  45.983  14.484  0.00  0.00     0.254 C 
ATOM    120  CD  PRO A   5     -20.858  48.255  14.866  0.00  0.00     0.105 C 
ATOM    121  O   ILE A   4     -19.083  45.180  14.458  0.00  0.00    -0.270 OA
ATOM    122  CG  PRO A   5     -20.012  49.530  14.922  0.00  0.00     0.027 C 
ATOM    123  CB  PRO A   5     -18.870  49.155  15.885  0.00  0.00     0.034 C 
BRANCH 119 124
ATOM    124  CA  ILE A   4     -21.337  45.608  13.868  0.00  0.00     0.160 C 
BRANCH 124 125
ATOM    125  N   ILE A   4     -21.185  45.213  12.480  0.00  0.00    -0.338 N 
ATOM    126  C   LYS A   3     -22.017  45.647  11.548  0.00  0.00     0.251 C 
ATOM    127  O   LYS A   3     -22.983  46.367  11.799  0.00  0.00    -0.271 OA
ATOM    128  H   ILE A   4     -20.454  44.616  12.229  0.00  0.00     0.164 HD
BRANCH 126 129
ATOM    129  CA  LYS A   3     -21.759  45.181  10.125  0.00  0.00     0.159 C 
BRANCH 129 130
ATOM    130  N   LYS A   3     -23.104  45.116   9.571  0.00  0.00    -0.338 N 
ATOM    131  C   ILE A   2     -23.526  44.019   8.956  0.00  0.00     0.251 C 
ATOM    132  O   ILE A   2     -22.791  43.062   8.719  0.00  0.00    -0.271 OA
ATOM    133  H   LYS A   3     -23.700  45.886   9.653  0.00  0.00     0.164 HD
BRANCH 131 134
ATOM    134  CA  ILE A   2     -24.980  44.005   8.516  0.00  0.00     0.159 C 
BRANCH 134 135
ATOM    135  N   ILE A   2     -25.155  43.053   7.429  0.00  0.00    -0.337 N 
ATOM    136  C   LYS A   1     -26.004  43.295   6.440  0.00  0.00     0.252 C 
ATOM    137  O   LYS A   1     -26.701  44.305   6.394  0.00  0.00    -0.270 OA
ATOM    138  H   ILE A   2     -24.638  42.223   7.429  0.00  0.00     0.164 HD
BRANCH 136 139
ATOM    139  CA  LYS A   1     -26.114  42.227   5.358  0.00  0.00     0.172 C 
BRANCH 139 140
ATOM    140  N   LYS A   1     -27.471  42.259   4.840  0.00  0.00    -0.316 NA
ATOM    141  H   LYS A   1     -27.750  41.614   4.101  0.00  0.00     0.181 HD
ENDBRANCH 139 140
BRANCH 139 142
ATOM    142  CB  LYS A   1     -25.113  42.524   4.226  0.00  0.00     0.033 C 
BRANCH 142 143
ATOM    143  CG  LYS A   1     -25.018  41.376   3.234  0.00  0.00     0.005 C 
BRANCH 143 144
ATOM    144  CD  LYS A   1     -24.011  41.660   2.131  0.00  0.00     0.041 C 
BRANCH 144 145
ATOM    145  CE  LYS A   1     -23.916  40.512   1.139  0.00  0.00     0.338 C 
ATOM    146  NZ  LYS A   1     -22.936  40.788   0.064  0.00  0.00     0.618 N 
ENDBRANCH 144 145
ENDBRANCH 143 144
ENDBRANCH 142 143
ENDBRANCH 139 142
ENDBRANCH 136 139
ENDBRANCH 134 135
BRANCH 134 147
ATOM    147  CB  ILE A   2     -25.870  43.596   9.705  0.00  0.00     0.029 C 
ATOM    148  CG2 ILE A   2     -25.653  44.549  10.869  0.00  0.00     0.002 C 
BRANCH 147 149
ATOM    149  CG1 ILE A   2     -27.346  43.614   9.345  0.00  0.00     0.002 C 
ATOM    150  CD  ILE A   2     -28.141  42.823  10.370  0.00  0.00     0.000 C 
ENDBRANCH 147 149
ENDBRANCH 134 147
ENDBRANCH 131 134
ENDBRANCH 129 130
BRANCH 129 151
ATOM    151  CB  LYS A   3     -20.887  46.192   9.358  0.00  0.00     0.032 C 
BRANCH 151 152
ATOM    152  CG  LYS A   3     -20.479  45.670   7.989  0.00  0.00     0.005 C 
BRANCH 152 153
ATOM    153  CD  LYS A   3     -19.598  46.658   7.242  0.00  0.00     0.041 C 
BRANCH 153 154
ATOM    154  CE  LYS A   3     -19.191  46.136   5.874  0.00  0.00     0.338 C 
ATOM    155  NZ  LYS A   3     -18.333  47.098   5.146  0.00  0.00     0.618 N 
ENDBRANCH 153 154
ENDBRANCH 152 153
ENDBRANCH 151 152
ENDBRANCH 129 151
ENDBRANCH 126 129
ENDBRANCH 124 125
BRANCH 124 156
ATOM    156  CB  ILE A   4     -21.941  44.433  14.660  0.00  0.00     0.029 C 
ATOM    157  CG2 ILE A   4     -22.074  44.809  16.127  0.00  0.00     0.002 C 
BRANCH 156 158
ATOM    158  CG1 ILE A   4     -23.316  44.045  14.143  0.00  0.00     0.002 C 
ATOM    159  CD  ILE A   4     -23.689  42.660  14.646  0.00  0.00     0.000 C 
ENDBRANCH 156 158
ENDBRANCH 124 156
ENDBRANCH 119 124
ENDBRANCH 114 117
ENDBRANCH 112 113
BRANCH 112 160
ATOM    160  CB  TRP A   6     -16.128  44.675  18.477  0.00  0.00     0.060 C 
BRANCH 160 161
ATOM    161  CG  TRP A   6     -17.195  43.595  18.217  0.00  0.00     0.001 A 
ATOM    162  CD2 TRP A   6     -18.069  42.971  19.220  0.00  0.00     0.015 A 
ATOM    163  CE2 TRP A   6     -18.859  42.069  18.557  0.00  0.00     0.081 A 
ATOM    164  CE3 TRP A   6     -18.203  43.133  20.574  0.00  0.00     0.001 A 
ATOM    165  CZ2 TRP A   6     -19.783  41.330  19.248  0.00  0.00     0.019 A 
ATOM    166  NE1 TRP A   6     -18.522  42.104  17.209  0.00  0.00    -0.244 NA
ATOM    167  CH2 TRP A   6     -19.917  41.492  20.602  0.00  0.00     0.002 A 
ATOM    168  CZ3 TRP A   6     -19.127  42.394  21.265  0.00  0.00     0.000 A 
ATOM    169  CD1 TRP A   6     -17.508  43.034  17.007  0.00  0.00     0.095 A 
ENDBRANCH 160 161
ENDBRANCH 112 160
ENDBRANCH 110 112
ENDBRANCH 107 108
ENDBRANCH 104 107
ENDBRANCH 102 103
BRANCH 102 170
ATOM    170  CB  LYS A   8     -10.477  45.458  16.980  0.00  0.00     0.049 C 
BRANCH 170 171
ATOM    171  CG  LYS A   8      -9.830  45.959  18.261  0.00  0.00     0.009 C 
BRANCH 171 172
ATOM    172  CD  LYS A   8      -8.905  44.921  18.875  0.00  0.00     0.042 C 
BRANCH 172 173
ATOM    173  CE  LYS A   8      -8.258  45.421  20.156  0.00  0.00     0.338 C 
ATOM    174  NZ  LYS A   8      -7.357  44.411  20.754  0.00  0.00     0.618 N 
ENDBRANCH 172 173
ENDBRANCH 171 172
ENDBRANCH 170 171
ENDBRANCH 102 170
ENDBRANCH  99 102
ENDBRANCH  94  98
ENDBRANCH  92  94
ENDBRANCH   1  90
TORSDOF 77
