REMARK WARNING: 32 MAX_TORS EXCEEDED!!!
REMARK  77 active torsions:
REMARK  status: ('A' for Active; 'I' for Inactive)
REMARK    1  A    between atoms: N_0  and  CA_1 
REMARK    2  A    between atoms: CA_1  and  CB_5 
REMARK    3  A    between atoms: CA_1  and  C_2 
REMARK       I    between atoms: C_2  and  N_0 
REMARK    4  A    between atoms: CB_5  and  CG_6 
REMARK    5  A    between atoms: CG_6  and  CD_7 
REMARK    6  A    between atoms: CD_7  and  CE_8 
REMARK    7  A    between atoms: N_0  and  CA_1 
REMARK    8  A    between atoms: CA_1  and  C_2 
REMARK    9  A    between atoms: CA_1  and  CB_5 
REMARK       I    between atoms: C_2  and  N_0 
REMARK   10  A    between atoms: CB_5  and  CG1_6 
REMARK   11  A    between atoms: N_0  and  CA_1 
REMARK   12  A    between atoms: CA_1  and  CB_5 
REMARK   13  A    between atoms: CA_1  and  C_2 
REMARK       I    between atoms: C_2  and  N_0 
REMARK   14  A    between atoms: CB_5  and  CG_6 
REMARK   15  A    between atoms: CG_6  and  CD_7 
REMARK   16  A    between atoms: CD_7  and  CE_8 
REMARK   17  A    between atoms: N_0  and  CA_1 
REMARK   18  A    between atoms: CA_1  and  C_2 
REMARK   19  A    between atoms: CA_1  and  CB_5 
REMARK       I    between atoms: C_2  and  N_0 
REMARK   20  A    between atoms: CB_5  and  CG1_6 
REMARK   21  A    between atoms: CA_1  and  C_2 
REMARK       I    between atoms: C_2  and  N_0 
REMARK   22  A    between atoms: N_0  and  CA_1 
REMARK   23  A    between atoms: CA_1  and  CB_5 
REMARK   24  A    between atoms: CA_1  and  C_2 
REMARK       I    between atoms: C_2  and  N_0 
REMARK   25  A    between atoms: CB_5  and  CG_6 
REMARK   26  A    between atoms: N_0  and  CA_1 
REMARK   27  A    between atoms: CA_1  and  C_2 
REMARK       I    between atoms: C_2  and  N_0 
REMARK   28  A    between atoms: N_0  and  CA_1 
REMARK   29  A    between atoms: CA_1  and  C_2 
REMARK   30  A    between atoms: CA_1  and  CB_5 
REMARK       I    between atoms: C_2  and  N_0 
REMARK   31  A    between atoms: CB_5  and  CG_6 
REMARK   32  A    between atoms: CG_6  and  CD_7 
REMARK   33  A    between atoms: CD_7  and  CE_8 
REMARK   34  A    between atoms: N_0  and  CA_1 
REMARK   35  A    between atoms: CA_1  and  CB_5 
REMARK   36  A    between atoms: CA_1  and  C_2 
REMARK       I    between atoms: C_2  and  N_0 
REMARK   37  A    between atoms: N_0  and  CA_1 
REMARK   38  A    between atoms: CA_1  and  CB_5 
REMARK   39  A    between atoms: CA_1  and  C_2 
REMARK       I    between atoms: C_2  and  N_0 
REMARK   40  A    between atoms: CB_5  and  CG_6 
REMARK   41  A    between atoms: CG_6  and  CD_7 
REMARK   42  A    between atoms: CD_7  and  CE_8 
REMARK   43  A    between atoms: N_0  and  CA_1 
REMARK   44  A    between atoms: CA_1  and  CB_5 
REMARK   45  A    between atoms: CA_1  and  C_2 
REMARK       I    between atoms: C_2  and  N_0 
REMARK   46  A    between atoms: CB_5  and  CG_6 
REMARK   47  A    between atoms: N_0  and  CA_1 
REMARK   48  A    between atoms: CA_1  and  C_2 
REMARK   49  A    between atoms: CA_1  and  CB_5 
REMARK       I    between atoms: C_2  and  N_0 
REMARK   50  A    between atoms: CB_5  and  CG_6 
REMARK   51  A    between atoms: N_0  and  CA_1 
REMARK   52  A    between atoms: CA_1  and  CB_5 
REMARK   53  A    between atoms: CA_1  and  C_2 
REMARK       I    between atoms: C_2  and  N_0 
REMARK   54  A    between atoms: CB_5  and  CG_6 
REMARK   55  A    between atoms: N_0  and  CA_1 
REMARK   56  A    between atoms: CA_1  and  CB_5 
REMARK   57  A    between atoms: CA_1  and  C_2 
REMARK       I    between atoms: C_2  and  N_0 
REMARK   58  A    between atoms: N_0  and  CA_1 
REMARK   59  A    between atoms: CA_1  and  C_2 
REMARK       I    between atoms: C_2  and  N_0 
REMARK   60  A    between atoms: N_0  and  CA_1 
REMARK   61  A    between atoms: CA_1  and  C_2 
REMARK       I    between atoms: C_2  and  N_0 
REMARK   62  A    between atoms: N_0  and  CA_1 
REMARK   63  A    between atoms: CA_1  and  C_2 
REMARK   64  A    between atoms: CA_1  and  CB_5 
REMARK       I    between atoms: C_2  and  N_0 
REMARK   65  A    between atoms: CB_5  and  CG_6 
REMARK   66  A    between atoms: CG_6  and  SD_7 
REMARK   67  A    between atoms: N_0  and  CA_1 
REMARK   68  A    between atoms: CA_1  and  C_2 
REMARK   69  A    between atoms: CA_1  and  CB_5 
REMARK       I    between atoms: C_2  and  N_0 
REMARK   70  A    between atoms: CB_5  and  CG_6 
REMARK   71  A    between atoms: CG_6  and  CD_7 
REMARK   72  A    between atoms: CD_7  and  CE_8 
REMARK   73  A    between atoms: N_0  and  CA_1 
REMARK   74  A    between atoms: CA_1  and  C_2 
REMARK       I    between atoms: C_2  and  N_0 
REMARK   75  A    between atoms: N_0  and  CA_1 
REMARK   76  A    between atoms: CA_1  and  C_2 
REMARK   77  A    between atoms: CA_1  and  CB_5 
ROOT
ATOM      1  CA  LYS A  10     140.333  39.929 125.524  0.00  0.00     0.159 C 
ENDROOT
BRANCH   1   2
ATOM      2  N   LYS A  10     140.808  40.849 126.549  0.00  0.00    -0.338 N 
ATOM      3  H   LYS A  10     140.611  41.802 126.460  0.00  0.00     0.164 HD
ATOM      4  C   VAL A   9     141.502  40.427 127.600  0.00  0.00     0.251 C 
ATOM      5  O   VAL A   9     141.924  39.275 127.706  0.00  0.00    -0.271 OA
BRANCH   4   6
ATOM      6  CA  VAL A   9     141.715  41.485 128.783  0.00  0.00     0.159 C 
BRANCH   6   7
ATOM      7  CB  VAL A   9     143.054  42.228 128.618  0.00  0.00     0.029 C 
ATOM      8  CG1 VAL A   9     144.202  41.275 128.329  0.00  0.00     0.002 C 
ATOM      9  CG2 VAL A   9     143.011  43.234 127.479  0.00  0.00     0.002 C 
ENDBRANCH   6   7
BRANCH   6  10
ATOM     10  N   VAL A   9     141.720  40.668 129.987  0.00  0.00    -0.338 N 
ATOM     11  C   LYS A   8     140.626  40.070 130.422  0.00  0.00     0.251 C 
ATOM     12  O   LYS A   8     139.556  40.123 129.826  0.00  0.00    -0.271 OA
ATOM     13  H   VAL A   9     142.554  40.559 130.485  0.00  0.00     0.164 HD
BRANCH  11  14
ATOM     14  CA  LYS A   8     140.558  39.703 131.933  0.00  0.00     0.159 C 
BRANCH  14  15
ATOM     15  CB  LYS A   8     139.562  38.528 131.939  0.00  0.00     0.032 C 
BRANCH  15  16
ATOM     16  CG  LYS A   8     139.720  37.654 133.172  0.00  0.00     0.005 C 
BRANCH  16  17
ATOM     17  CD  LYS A   8     138.754  36.480 133.166  0.00  0.00     0.041 C 
BRANCH  17  18
ATOM     18  CE  LYS A   8     138.912  35.606 134.399  0.00  0.00     0.338 C 
ATOM     19  NZ  LYS A   8     137.971  34.463 134.393  0.00  0.00     0.618 N 
ENDBRANCH  17  18
ENDBRANCH  16  17
ENDBRANCH  15  16
ENDBRANCH  14  15
BRANCH  14  20
ATOM     20  N   LYS A   8     140.240  40.385 133.171  0.00  0.00    -0.337 N 
ATOM     21  C   GLY A   7     139.119  40.101 133.824  0.00  0.00     0.253 C 
ATOM     22  O   GLY A   7     138.295  39.274 133.415  0.00  0.00    -0.270 OA
ATOM     23  H   LYS A   8     140.854  41.057 133.527  0.00  0.00     0.164 HD
BRANCH  21  24
ATOM     24  CA  GLY A   7     138.952  41.311 134.979  0.00  0.00     0.189 C 
BRANCH  24  25
ATOM     25  N   GLY A   7     138.533  42.621 134.488  0.00  0.00    -0.336 N 
ATOM     26  H   GLY A   7     138.368  42.737 133.532  0.00  0.00     0.164 HD
ATOM     27  C   TRP A   6     138.369  43.659 135.299  0.00  0.00     0.251 C 
ATOM     28  O   TRP A   6     138.522  43.590 136.515  0.00  0.00    -0.271 OA
BRANCH  27  29
ATOM     29  CA  TRP A   6     137.729  44.896 134.678  0.00  0.00     0.164 C 
BRANCH  29  30
ATOM     30  N   TRP A   6     138.426  44.951 133.399  0.00  0.00    -0.338 N 
ATOM     31  H   TRP A   6     138.349  44.197 132.781  0.00  0.00     0.164 HD
ATOM     32  C   PRO A   5     139.165  46.002 133.054  0.00  0.00     0.246 C 
ATOM     33  O   PRO A   5     139.311  46.986 133.777  0.00  0.00    -0.271 OA
BRANCH  32  34
ATOM     34  CA  PRO A   5     140.019  45.863 131.804  0.00  0.00     0.143 C 
ATOM     35  N   PRO A   5     140.665  47.169 131.794  0.00  0.00    -0.215 NA
ATOM     36  C   ILE A   4     140.482  48.016 130.783  0.00  0.00     0.234 C 
ATOM     37  CD  PRO A   5     142.179  46.901 131.657  0.00  0.00     0.080 C 
ATOM     38  O   ILE A   4     139.786  47.744 129.796  0.00  0.00    -0.277 OA
ATOM     39  CG  PRO A   5     142.355  45.416 131.326  0.00  0.00     0.020 C 
ATOM     40  CB  PRO A   5     141.094  44.768 131.927  0.00  0.00     0.027 C 
BRANCH  36  41
ATOM     41  CA  ILE A   4     141.078  49.415 130.967  0.00  0.00     0.154 C 
BRANCH  41  42
ATOM     42  CB  ILE A   4     140.437  50.128 132.172  0.00  0.00     0.029 C 
ATOM     43  CG2 ILE A   4     140.686  49.328 133.441  0.00  0.00     0.002 C 
BRANCH  42  44
ATOM     44  CG1 ILE A   4     141.001  51.525 132.374  0.00  0.00     0.002 C 
ATOM     45  CD  ILE A   4     140.080  52.332 133.274  0.00  0.00     0.000 C 
ENDBRANCH  42  44
ENDBRANCH  41  42
BRANCH  41  46
ATOM     46  N   ILE A   4     140.755  50.096 129.737  0.00  0.00    -0.338 N 
ATOM     47  C   LYS A   3     141.645  50.896 129.178  0.00  0.00     0.251 C 
ATOM     48  O   LYS A   3     142.800  51.001 129.589  0.00  0.00    -0.271 OA
ATOM     49  H   ILE A   4     139.881  49.964 129.319  0.00  0.00     0.164 HD
BRANCH  47  50
ATOM     50  CA  LYS A   3     141.172  51.672 127.977  0.00  0.00     0.159 C 
BRANCH  50  51
ATOM     51  CB  LYS A   3     142.047  51.336 126.755  0.00  0.00     0.032 C 
BRANCH  51  52
ATOM     52  CG  LYS A   3     141.479  51.919 125.470  0.00  0.00     0.005 C 
BRANCH  52  53
ATOM     53  CD  LYS A   3     142.330  51.567 124.261  0.00  0.00     0.041 C 
BRANCH  53  54
ATOM     54  CE  LYS A   3     141.763  52.150 122.977  0.00  0.00     0.338 C 
ATOM     55  NZ  LYS A   3     142.591  51.807 121.799  0.00  0.00     0.618 N 
ENDBRANCH  53  54
ENDBRANCH  52  53
ENDBRANCH  51  52
ENDBRANCH  50  51
BRANCH  50  56
ATOM     56  N   LYS A   3     141.289  53.077 128.301  0.00  0.00    -0.338 N 
ATOM     57  H   LYS A   3     142.167  53.507 128.290  0.00  0.00     0.164 HD
ATOM     58  C   ILE A   2     140.211  53.779 128.613  0.00  0.00     0.251 C 
ATOM     59  O   ILE A   2     139.077  53.301 128.607  0.00  0.00    -0.271 OA
BRANCH  58  60
ATOM     60  CA  ILE A   2     140.441  55.237 128.962  0.00  0.00     0.159 C 
BRANCH  60  61
ATOM     61  N   ILE A   2     139.679  56.068 128.042  0.00  0.00    -0.337 N 
ATOM     62  C   LYS A   1     140.288  56.832 127.142  0.00  0.00     0.252 C 
ATOM     63  O   LYS A   1     141.510  56.919 127.069  0.00  0.00    -0.270 OA
ATOM     64  H   ILE A   2     138.703  56.063 128.087  0.00  0.00     0.164 HD
BRANCH  62  65
ATOM     65  CA  LYS A   1     139.389  57.628 126.197  0.00  0.00     0.172 C 
BRANCH  65  66
ATOM     66  CB  LYS A   1     139.730  57.264 124.740  0.00  0.00     0.033 C 
BRANCH  66  67
ATOM     67  CG  LYS A   1     138.715  57.828 123.759  0.00  0.00     0.005 C 
BRANCH  67  68
ATOM     68  CD  LYS A   1     139.038  57.448 122.323  0.00  0.00     0.041 C 
BRANCH  68  69
ATOM     69  CE  LYS A   1     138.022  58.011 121.343  0.00  0.00     0.338 C 
ATOM     70  NZ  LYS A   1     138.337  57.641 119.945  0.00  0.00     0.618 N 
ENDBRANCH  68  69
ENDBRANCH  67  68
ENDBRANCH  66  67
ENDBRANCH  65  66
BRANCH  65  71
ATOM     71  N   LYS A   1     139.602  59.050 126.403  0.00  0.00    -0.316 NA
ATOM     72  H   LYS A   1     139.079  59.730 125.851  0.00  0.00     0.181 HD
ENDBRANCH  65  71
ENDBRANCH  62  65
ENDBRANCH  60  61
BRANCH  60  73
ATOM     73  CB  ILE A   2     139.975  55.501 130.406  0.00  0.00     0.029 C 
ATOM     74  CG2 ILE A   2     140.140  56.974 130.745  0.00  0.00     0.002 C 
BRANCH  73  75
ATOM     75  CG1 ILE A   2     138.515  55.128 130.610  0.00  0.00     0.002 C 
ATOM     76  CD  ILE A   2     138.154  55.229 132.083  0.00  0.00     0.000 C 
ENDBRANCH  73  75
ENDBRANCH  60  73
ENDBRANCH  58  60
ENDBRANCH  50  56
ENDBRANCH  47  50
ENDBRANCH  41  46
ENDBRANCH  36  41
ENDBRANCH  32  34
ENDBRANCH  29  30
BRANCH  29  77
ATOM     77  CB  TRP A   6     136.211  44.714 134.490  0.00  0.00     0.060 C 
BRANCH  77  78
ATOM     78  CG  TRP A   6     135.473  44.602 135.837  0.00  0.00     0.001 A 
ATOM     79  CD2 TRP A   6     135.052  43.361 136.503  0.00  0.00     0.015 A 
ATOM     80  CE3 TRP A   6     135.171  42.036 136.172  0.00  0.00     0.001 A 
ATOM     81  CE2 TRP A   6     134.433  43.722 137.670  0.00  0.00     0.081 A 
ATOM     82  CZ3 TRP A   6     134.670  41.074 137.008  0.00  0.00     0.000 A 
ATOM     83  CH2 TRP A   6     134.051  41.435 138.176  0.00  0.00     0.002 A 
ATOM     84  CZ2 TRP A   6     133.933  42.760 138.507  0.00  0.00     0.019 A 
ATOM     85  NE1 TRP A   6     134.450  45.109 137.759  0.00  0.00    -0.244 NA
ATOM     86  CD1 TRP A   6     135.083  45.640 136.642  0.00  0.00     0.095 A 
ENDBRANCH  77  78
ENDBRANCH  29  77
ENDBRANCH  27  29
ENDBRANCH  24  25
ENDBRANCH  21  24
ENDBRANCH  14  20
ENDBRANCH  11  14
ENDBRANCH   6  10
ENDBRANCH   4   6
ENDBRANCH   1   2
BRANCH   1  87
ATOM     87  CB  LYS A  10     139.468  38.787 126.090  0.00  0.00     0.032 C 
BRANCH  87  88
ATOM     88  CG  LYS A  10     140.310  37.712 126.758  0.00  0.00     0.005 C 
BRANCH  88  89
ATOM     89  CD  LYS A  10     139.459  36.573 127.295  0.00  0.00     0.041 C 
BRANCH  89  90
ATOM     90  CE  LYS A  10     140.301  35.498 127.962  0.00  0.00     0.338 C 
ATOM     91  NZ  LYS A  10     139.472  34.390 128.485  0.00  0.00     0.618 N 
ENDBRANCH  89  90
ENDBRANCH  88  89
ENDBRANCH  87  88
ENDBRANCH   1  87
BRANCH   1  92
ATOM     92  C   LYS A  10     139.570  40.916 124.831  0.00  0.00     0.251 C 
ATOM     93  O   LYS A  10     139.710  40.944 123.613  0.00  0.00    -0.271 OA
ATOM     94  N   ASP A  11     138.814  41.760 125.508  0.00  0.00    -0.337 N 
ATOM     95  H   ASP A  11     138.766  41.687 126.481  0.00  0.00     0.164 HD
BRANCH  94  96
ATOM     96  CA  ASP A  11     138.049  42.801 124.831  0.00  0.00     0.170 C 
BRANCH  96  97
ATOM     97  CB  ASP A  11     136.563  42.796 125.235  0.00  0.00     0.129 C 
BRANCH  97  98
ATOM     98  CG  ASP A  11     135.797  41.661 124.575  0.00  0.00     0.188 C 
ATOM     99  OD2 ASP A  11     134.843  41.131 125.164  0.00  0.00    -0.647 OA
ATOM    100  OD1 ASP A  11     136.126  41.265 123.447  0.00  0.00    -0.647 OA
ENDBRANCH  97  98
ENDBRANCH  96  97
BRANCH  96 101
ATOM    101  C   ASP A  11     138.828  44.041 125.422  0.00  0.00     0.252 C 
ATOM    102  N   PHE A  12     138.349  45.237 125.120  0.00  0.00    -0.337 N 
ATOM    103  H   PHE A  12     137.544  45.333 124.575  0.00  0.00     0.164 HD
ATOM    104  O   ASP A  11     139.841  43.907 126.102  0.00  0.00    -0.271 OA
BRANCH 102 105
ATOM    105  CA  PHE A  12     139.053  46.405 125.623  0.00  0.00     0.164 C 
BRANCH 105 106
ATOM    106  C   PHE A  12     137.846  47.176 126.020  0.00  0.00     0.251 C 
ATOM    107  O   PHE A  12     136.986  47.342 125.157  0.00  0.00    -0.271 OA
ATOM    108  N   LEU A  13     137.746  47.724 127.214  0.00  0.00    -0.338 N 
ATOM    109  H   LEU A  13     138.398  47.498 127.907  0.00  0.00     0.164 HD
BRANCH 108 110
ATOM    110  CA  LEU A  13     136.664  48.673 127.517  0.00  0.00     0.159 C 
BRANCH 110 111
ATOM    111  CB  LEU A  13     136.009  48.350 128.873  0.00  0.00     0.032 C 
BRANCH 111 112
ATOM    112  CG  LEU A  13     135.305  47.003 128.859  0.00  0.00     0.002 C 
ATOM    113  CD2 LEU A  13     134.059  47.020 127.988  0.00  0.00     0.000 C 
ATOM    114  CD1 LEU A  13     134.871  46.572 130.251  0.00  0.00     0.000 C 
ENDBRANCH 111 112
ENDBRANCH 110 111
BRANCH 110 115
ATOM    115  C   LEU A  13     137.421  50.103 127.567  0.00  0.00     0.251 C 
ATOM    116  O   LEU A  13     138.465  50.249 128.192  0.00  0.00    -0.271 OA
ATOM    117  N   VAL A  14     136.865  51.066 126.855  0.00  0.00    -0.338 N 
ATOM    118  H   VAL A  14     135.979  50.921 126.468  0.00  0.00     0.164 HD
BRANCH 117 119
ATOM    119  CA  VAL A  14     137.533  52.339 126.630  0.00  0.00     0.160 C 
BRANCH 119 120
ATOM    120  CB  VAL A  14     138.086  52.419 125.195  0.00  0.00     0.029 C 
ATOM    121  CG1 VAL A  14     137.071  51.944 124.167  0.00  0.00     0.002 C 
ATOM    122  CG2 VAL A  14     138.478  53.837 124.814  0.00  0.00     0.002 C 
ENDBRANCH 119 120
BRANCH 119 123
ATOM    123  C   VAL A  14     136.433  53.398 126.849  0.00  0.00     0.255 C 
ATOM    124  O   VAL A  14     135.269  53.194 126.505  0.00  0.00    -0.270 OA
ATOM    125  N   GLY A  15     136.839  54.545 127.376  0.00  0.00    -0.318 N 
ATOM    126  H   GLY A  15     137.763  54.632 127.682  0.00  0.00     0.169 HD
BRANCH 125 127
ATOM    127  CA  GLY A  15     135.939  55.675 127.507  0.00  0.00     0.136 C 
BRANCH 127 128
ATOM    128  C   GLY A  15     136.328  56.464 128.614  0.00  0.00     0.272 C 
ATOM    129  O   GLY A  15     137.213  57.264 128.312  0.00  0.00    -0.266 OA
ATOM    130  N   GLY A  16     135.734  56.414 129.798  0.00  0.00    -0.332 N 
ATOM    131  H   GLY A  16     135.039  55.746 129.960  0.00  0.00     0.164 HD
BRANCH 130 132
ATOM    132  CA  GLY A  16     136.101  57.336 130.858  0.00  0.00     0.189 C 
BRANCH 132 133
ATOM    133  C   GLY A  16     136.003  56.128 131.965  0.00  0.00     0.253 C 
ATOM    134  O   GLY A  16     135.454  55.029 131.901  0.00  0.00    -0.270 OA
ATOM    135  N   MET A  17     136.265  56.736 133.115  0.00  0.00    -0.337 N 
ATOM    136  H   MET A  17     136.690  57.616 133.109  0.00  0.00     0.164 HD
BRANCH 135 137
ATOM    137  CA  MET A  17     135.928  56.113 134.384  0.00  0.00     0.160 C 
BRANCH 137 138
ATOM    138  C   MET A  17     134.515  56.376 134.335  0.00  0.00     0.251 C 
ATOM    139  N   LYS A  18     133.547  55.688 133.737  0.00  0.00    -0.338 N 
ATOM    140  H   LYS A  18     133.771  54.922 133.172  0.00  0.00     0.164 HD
ATOM    141  O   MET A  17     134.293  57.356 135.049  0.00  0.00    -0.271 OA
BRANCH 139 142
ATOM    142  CA  LYS A  18     132.157  56.070 133.920  0.00  0.00     0.159 C 
BRANCH 142 143
ATOM    143  C   LYS A  18     131.902  55.106 132.860  0.00  0.00     0.251 C 
ATOM    144  N   ALA A  19     132.722  54.904 131.832  0.00  0.00    -0.338 N 
ATOM    145  H   ALA A  19     133.497  55.489 131.720  0.00  0.00     0.164 HD
ATOM    146  O   LYS A  18     130.887  54.442 133.053  0.00  0.00    -0.271 OA
BRANCH 144 147
ATOM    147  CA  ALA A  19     132.499  53.833 130.867  0.00  0.00     0.159 C 
ATOM    148  CB  ALA A  19     133.331  54.108 129.600  0.00  0.00     0.034 C 
BRANCH 147 149
ATOM    149  C   ALA A  19     132.917  52.489 131.461  0.00  0.00     0.251 C 
ATOM    150  O   ALA A  19     132.207  51.490 131.326  0.00  0.00    -0.271 OA
ATOM    151  N   VAL A  20     134.071  52.460 132.127  0.00  0.00    -0.339 N 
ATOM    152  H   VAL A  20     134.598  53.277 132.228  0.00  0.00     0.164 HD
BRANCH 151 153
ATOM    153  CA  VAL A  20     134.548  51.209 132.708  0.00  0.00     0.145 C 
BRANCH 153 154
ATOM    154  C   VAL A  20     133.773  50.829 133.967  0.00  0.00     0.229 C 
ATOM    155  O   VAL A  20     134.046  49.789 134.573  0.00  0.00    -0.286 OA
ENDBRANCH 153 154
BRANCH 153 156
ATOM    156  CB  VAL A  20     136.037  51.364 133.070  0.00  0.00     0.028 C 
ATOM    157  CG2 VAL A  20     136.906  51.553 131.838  0.00  0.00     0.002 C 
ATOM    158  CG1 VAL A  20     136.571  50.151 133.814  0.00  0.00     0.002 C 
ENDBRANCH 153 156
ENDBRANCH 151 153
ENDBRANCH 147 149
ENDBRANCH 144 147
ENDBRANCH 142 143
BRANCH 142 159
ATOM    159  CB  LYS A  18     131.823  57.533 133.573  0.00  0.00     0.032 C 
BRANCH 159 160
ATOM    160  CG  LYS A  18     132.161  58.480 134.713  0.00  0.00     0.005 C 
BRANCH 160 161
ATOM    161  CD  LYS A  18     131.809  59.920 134.380  0.00  0.00     0.041 C 
BRANCH 161 162
ATOM    162  CE  LYS A  18     132.146  60.867 135.520  0.00  0.00     0.338 C 
ATOM    163  NZ  LYS A  18     131.803  62.270 135.196  0.00  0.00     0.618 N 
ENDBRANCH 161 162
ENDBRANCH 160 161
ENDBRANCH 159 160
ENDBRANCH 142 159
ENDBRANCH 139 142
ENDBRANCH 137 138
BRANCH 137 164
ATOM    164  CB  MET A  17     136.613  56.800 135.580  0.00  0.00     0.043 C 
BRANCH 164 165
ATOM    165  CG  MET A  17     138.105  56.512 135.624  0.00  0.00     0.060 C 
BRANCH 165 166
ATOM    166  SD  MET A  17     138.451  54.760 135.975  0.00  0.00    -0.139 SA
ATOM    167  CE  MET A  17     137.855  54.592 137.686  0.00  0.00     0.069 C 
ENDBRANCH 165 166
ENDBRANCH 164 165
ENDBRANCH 137 164
ENDBRANCH 135 137
ENDBRANCH 132 133
ENDBRANCH 130 132
ENDBRANCH 127 128
ENDBRANCH 125 127
ENDBRANCH 119 123
ENDBRANCH 117 119
ENDBRANCH 110 115
ENDBRANCH 108 110
ENDBRANCH 105 106
BRANCH 105 168
ATOM    168  CB  PHE A  12     139.875  47.116 124.532  0.00  0.00     0.058 C 
BRANCH 168 169
ATOM    169  CG  PHE A  12     141.146  46.355 124.189  0.00  0.00    -0.020 A 
ATOM    170  CD1 PHE A  12     141.146  45.453 123.158  0.00  0.00    -0.004 A 
ATOM    171  CE1 PHE A  12     142.291  44.767 122.849  0.00  0.00    -0.000 A 
ATOM    172  CZ  PHE A  12     143.435  44.983 123.571  0.00  0.00    -0.000 A 
ATOM    173  CE2 PHE A  12     143.434  45.885 124.602  0.00  0.00    -0.000 A 
ATOM    174  CD2 PHE A  12     142.290  46.571 124.911  0.00  0.00    -0.004 A 
ENDBRANCH 168 169
ENDBRANCH 105 168
ENDBRANCH 102 105
ENDBRANCH  96 101
ENDBRANCH  94  96
ENDBRANCH   1  92
TORSDOF 77
