REMARK WARNING: 32 MAX_TORS EXCEEDED!!!
REMARK  77 active torsions:
REMARK  status: ('A' for Active; 'I' for Inactive)
REMARK    1  A    between atoms: N_0  and  CA_1 
REMARK    2  A    between atoms: CA_1  and  CB_5 
REMARK    3  A    between atoms: CA_1  and  C_2 
REMARK       I    between atoms: C_2  and  N_0 
REMARK    4  A    between atoms: CB_5  and  CG_6 
REMARK    5  A    between atoms: CG_6  and  CD_7 
REMARK    6  A    between atoms: CD_7  and  CE_8 
REMARK    7  A    between atoms: N_0  and  CA_1 
REMARK    8  A    between atoms: CA_1  and  CB_5 
REMARK    9  A    between atoms: CA_1  and  C_2 
REMARK       I    between atoms: C_2  and  N_0 
REMARK   10  A    between atoms: CB_5  and  CG1_6 
REMARK   11  A    between atoms: N_0  and  CA_1 
REMARK   12  A    between atoms: CA_1  and  C_2 
REMARK   13  A    between atoms: CA_1  and  CB_5 
REMARK       I    between atoms: C_2  and  N_0 
REMARK   14  A    between atoms: CB_5  and  CG_6 
REMARK   15  A    between atoms: CG_6  and  CD_7 
REMARK   16  A    between atoms: CD_7  and  CE_8 
REMARK   17  A    between atoms: N_0  and  CA_1 
REMARK   18  A    between atoms: CA_1  and  CB_5 
REMARK   19  A    between atoms: CA_1  and  C_2 
REMARK       I    between atoms: C_2  and  N_0 
REMARK   20  A    between atoms: CB_5  and  CG1_6 
REMARK   21  A    between atoms: CA_1  and  C_2 
REMARK       I    between atoms: C_2  and  N_0 
REMARK   22  A    between atoms: N_0  and  CA_1 
REMARK   23  A    between atoms: CA_1  and  CB_5 
REMARK   24  A    between atoms: CA_1  and  C_2 
REMARK       I    between atoms: C_2  and  N_0 
REMARK   25  A    between atoms: CB_5  and  CG_6 
REMARK   26  A    between atoms: N_0  and  CA_1 
REMARK   27  A    between atoms: CA_1  and  C_2 
REMARK       I    between atoms: C_2  and  N_0 
REMARK   28  A    between atoms: N_0  and  CA_1 
REMARK   29  A    between atoms: CA_1  and  CB_5 
REMARK   30  A    between atoms: CA_1  and  C_2 
REMARK       I    between atoms: C_2  and  N_0 
REMARK   31  A    between atoms: CB_5  and  CG_6 
REMARK   32  A    between atoms: CG_6  and  CD_7 
REMARK   33  A    between atoms: CD_7  and  CE_8 
REMARK   34  A    between atoms: N_0  and  CA_1 
REMARK   35  A    between atoms: CA_1  and  CB_5 
REMARK   36  A    between atoms: CA_1  and  C_2 
REMARK       I    between atoms: C_2  and  N_0 
REMARK   37  A    between atoms: N_0  and  CA_1 
REMARK   38  A    between atoms: CA_1  and  CB_5 
REMARK   39  A    between atoms: CA_1  and  C_2 
REMARK       I    between atoms: C_2  and  N_0 
REMARK   40  A    between atoms: CB_5  and  CG_6 
REMARK   41  A    between atoms: CG_6  and  CD_7 
REMARK   42  A    between atoms: CD_7  and  CE_8 
REMARK   43  A    between atoms: N_0  and  CA_1 
REMARK   44  A    between atoms: CA_1  and  CB_5 
REMARK   45  A    between atoms: CA_1  and  C_2 
REMARK       I    between atoms: C_2  and  N_0 
REMARK   46  A    between atoms: CB_5  and  CG_6 
REMARK   47  A    between atoms: N_0  and  CA_1 
REMARK   48  A    between atoms: CA_1  and  CB_5 
REMARK   49  A    between atoms: CA_1  and  C_2 
REMARK       I    between atoms: C_2  and  N_0 
REMARK   50  A    between atoms: CB_5  and  CG_6 
REMARK   51  A    between atoms: N_0  and  CA_1 
REMARK   52  A    between atoms: CA_1  and  CB_5 
REMARK   53  A    between atoms: CA_1  and  C_2 
REMARK       I    between atoms: C_2  and  N_0 
REMARK   54  A    between atoms: CB_5  and  CG_6 
REMARK   55  A    between atoms: N_0  and  CA_1 
REMARK   56  A    between atoms: CA_1  and  CB_5 
REMARK   57  A    between atoms: CA_1  and  C_2 
REMARK       I    between atoms: C_2  and  N_0 
REMARK   58  A    between atoms: N_0  and  CA_1 
REMARK   59  A    between atoms: CA_1  and  C_2 
REMARK       I    between atoms: C_2  and  N_0 
REMARK   60  A    between atoms: N_0  and  CA_1 
REMARK   61  A    between atoms: CA_1  and  C_2 
REMARK       I    between atoms: C_2  and  N_0 
REMARK   62  A    between atoms: N_0  and  CA_1 
REMARK   63  A    between atoms: CA_1  and  CB_5 
REMARK   64  A    between atoms: CA_1  and  C_2 
REMARK       I    between atoms: C_2  and  N_0 
REMARK   65  A    between atoms: CB_5  and  CG_6 
REMARK   66  A    between atoms: CG_6  and  SD_7 
REMARK   67  A    between atoms: N_0  and  CA_1 
REMARK   68  A    between atoms: CA_1  and  C_2 
REMARK   69  A    between atoms: CA_1  and  CB_5 
REMARK       I    between atoms: C_2  and  N_0 
REMARK   70  A    between atoms: CB_5  and  CG_6 
REMARK   71  A    between atoms: CG_6  and  CD_7 
REMARK   72  A    between atoms: CD_7  and  CE_8 
REMARK   73  A    between atoms: N_0  and  CA_1 
REMARK   74  A    between atoms: CA_1  and  C_2 
REMARK       I    between atoms: C_2  and  N_0 
REMARK   75  A    between atoms: N_0  and  CA_1 
REMARK   76  A    between atoms: CA_1  and  CB_5 
REMARK   77  A    between atoms: CA_1  and  C_2 
ROOT
ATOM      1  CA  LYS A  10      19.795  83.461  66.726  0.00  0.00     0.159 C 
ENDROOT
BRANCH   1   2
ATOM      2  CB  LYS A  10      19.787  82.632  68.023  0.00  0.00     0.032 C 
BRANCH   2   3
ATOM      3  CG  LYS A  10      18.510  81.820  68.172  0.00  0.00     0.005 C 
BRANCH   3   4
ATOM      4  CD  LYS A  10      18.492  81.020  69.465  0.00  0.00     0.041 C 
BRANCH   4   5
ATOM      5  CE  LYS A  10      17.215  80.209  69.614  0.00  0.00     0.338 C 
ATOM      6  NZ  LYS A  10      17.197  79.430  70.872  0.00  0.00     0.618 N 
ENDBRANCH   4   5
ENDBRANCH   3   4
ENDBRANCH   2   3
ENDBRANCH   1   2
BRANCH   1   7
ATOM      7  C   LYS A  10      20.974  84.426  66.740  0.00  0.00     0.251 C 
ATOM      8  O   LYS A  10      20.810  85.640  66.842  0.00  0.00    -0.271 OA
ATOM      9  N   ASP A  11      22.170  83.915  66.562  0.00  0.00    -0.337 N 
ATOM     10  H   ASP A  11      22.291  82.958  66.406  0.00  0.00     0.164 HD
BRANCH   9  11
ATOM     11  CA  ASP A  11      23.299  84.808  66.603  0.00  0.00     0.170 C 
BRANCH  11  12
ATOM     12  CB  ASP A  11      24.587  83.982  66.423  0.00  0.00     0.129 C 
BRANCH  12  13
ATOM     13  CG  ASP A  11      25.836  84.822  66.636  0.00  0.00     0.188 C 
ATOM     14  OD2 ASP A  11      26.950  84.279  66.665  0.00  0.00    -0.647 OA
ATOM     15  OD1 ASP A  11      25.740  86.050  66.780  0.00  0.00    -0.647 OA
ENDBRANCH  12  13
ENDBRANCH  11  12
BRANCH  11  16
ATOM     16  C   ASP A  11      23.253  85.859  65.531  0.00  0.00     0.252 C 
ATOM     17  N   PHE A  12      22.825  85.475  64.341  0.00  0.00    -0.337 N 
ATOM     18  H   PHE A  12      22.610  84.537  64.172  0.00  0.00     0.164 HD
ATOM     19  O   ASP A  11      23.531  87.026  65.760  0.00  0.00    -0.271 OA
BRANCH  17  20
ATOM     20  CA  PHE A  12      22.676  86.479  63.271  0.00  0.00     0.164 C 
BRANCH  20  21
ATOM     21  CB  PHE A  12      22.183  85.779  61.991  0.00  0.00     0.058 C 
BRANCH  21  22
ATOM     22  CG  PHE A  12      21.947  86.764  60.858  0.00  0.00    -0.020 A 
ATOM     23  CD2 PHE A  12      20.672  87.152  60.541  0.00  0.00    -0.004 A 
ATOM     24  CE2 PHE A  12      20.459  88.040  59.520  0.00  0.00    -0.000 A 
ATOM     25  CZ  PHE A  12      21.522  88.541  58.816  0.00  0.00    -0.000 A 
ATOM     26  CE1 PHE A  12      22.798  88.153  59.132  0.00  0.00    -0.000 A 
ATOM     27  CD1 PHE A  12      23.010  87.265  60.153  0.00  0.00    -0.004 A 
ENDBRANCH  21  22
ENDBRANCH  20  21
BRANCH  20  28
ATOM     28  C   PHE A  12      21.690  87.544  63.653  0.00  0.00     0.251 C 
ATOM     29  N   LEU A  13      20.570  87.078  64.157  0.00  0.00    -0.338 N 
ATOM     30  H   LEU A  13      20.432  86.118  64.274  0.00  0.00     0.164 HD
ATOM     31  O   PHE A  12      21.905  88.752  63.592  0.00  0.00    -0.271 OA
BRANCH  29  32
ATOM     32  CA  LEU A  13      19.552  88.026  64.531  0.00  0.00     0.159 C 
BRANCH  32  33
ATOM     33  CB  LEU A  13      18.349  87.262  65.114  0.00  0.00     0.032 C 
BRANCH  33  34
ATOM     34  CG  LEU A  13      17.656  86.406  64.066  0.00  0.00     0.002 C 
ATOM     35  CD2 LEU A  13      16.998  87.249  62.986  0.00  0.00     0.000 C 
ATOM     36  CD1 LEU A  13      16.571  85.530  64.673  0.00  0.00     0.000 C 
ENDBRANCH  33  34
ENDBRANCH  32  33
BRANCH  32  37
ATOM     37  C   LEU A  13      20.081  89.071  65.626  0.00  0.00     0.251 C 
ATOM     38  N   VAL A  14      20.731  88.507  66.619  0.00  0.00    -0.338 N 
ATOM     39  H   VAL A  14      20.863  87.539  66.650  0.00  0.00     0.164 HD
ATOM     40  O   LEU A  13      19.996  90.293  65.536  0.00  0.00    -0.271 OA
BRANCH  38  41
ATOM     41  CA  VAL A  14      21.245  89.359  67.661  0.00  0.00     0.159 C 
BRANCH  41  42
ATOM     42  CB  VAL A  14      21.944  88.463  68.699  0.00  0.00     0.029 C 
ATOM     43  CG2 VAL A  14      20.973  87.507  69.373  0.00  0.00     0.002 C 
ATOM     44  CG1 VAL A  14      22.608  89.276  69.798  0.00  0.00     0.002 C 
ENDBRANCH  41  42
BRANCH  41  45
ATOM     45  C   VAL A  14      22.216  90.408  67.242  0.00  0.00     0.251 C 
ATOM     46  N   GLY A  15      23.132  89.974  66.374  0.00  0.00    -0.336 N 
ATOM     47  H   GLY A  15      23.146  89.031  66.118  0.00  0.00     0.164 HD
ATOM     48  O   VAL A  14      22.233  91.572  67.595  0.00  0.00    -0.271 OA
BRANCH  46  49
ATOM     49  CA  GLY A  15      24.103  90.879  65.804  0.00  0.00     0.189 C 
BRANCH  49  50
ATOM     50  C   GLY A  15      23.518  91.980  64.991  0.00  0.00     0.253 C 
ATOM     51  N   GLY A  16      22.538  91.627  64.157  0.00  0.00    -0.336 N 
ATOM     52  H   GLY A  16      22.280  90.687  64.088  0.00  0.00     0.164 HD
ATOM     53  O   GLY A  15      23.871  93.144  65.038  0.00  0.00    -0.270 OA
BRANCH  51  54
ATOM     54  CA  GLY A  16      21.853  92.614  63.355  0.00  0.00     0.189 C 
BRANCH  54  55
ATOM     55  C   GLY A  16      21.126  93.649  64.140  0.00  0.00     0.253 C 
ATOM     56  O   GLY A  16      21.132  94.841  63.894  0.00  0.00    -0.270 OA
ATOM     57  N   MET A  17      20.422  93.199  65.180  0.00  0.00    -0.337 N 
ATOM     58  H   MET A  17      20.383  92.239  65.356  0.00  0.00     0.164 HD
BRANCH  57  59
ATOM     59  CA  MET A  17      19.718  94.111  66.051  0.00  0.00     0.160 C 
BRANCH  59  60
ATOM     60  CB  MET A  17      18.920  93.303  67.091  0.00  0.00     0.043 C 
BRANCH  60  61
ATOM     61  CG  MET A  17      17.814  92.482  66.447  0.00  0.00     0.060 C 
BRANCH  61  62
ATOM     62  SD  MET A  17      16.509  93.534  65.737  0.00  0.00    -0.139 SA
ATOM     63  CE  MET A  17      15.778  94.286  67.225  0.00  0.00     0.069 C 
ENDBRANCH  61  62
ENDBRANCH  60  61
ENDBRANCH  59  60
BRANCH  59  64
ATOM     64  C   MET A  17      20.679  95.021  66.769  0.00  0.00     0.251 C 
ATOM     65  O   MET A  17      20.421  96.209  66.883  0.00  0.00    -0.271 OA
ATOM     66  N   LYS A  18      21.814  94.517  67.219  0.00  0.00    -0.338 N 
ATOM     67  H   LYS A  18      22.005  93.564  67.123  0.00  0.00     0.164 HD
BRANCH  66  68
ATOM     68  CA  LYS A  18      22.791  95.411  67.867  0.00  0.00     0.159 C 
BRANCH  68  69
ATOM     69  C   LYS A  18      23.327  96.435  66.899  0.00  0.00     0.251 C 
ATOM     70  O   LYS A  18      23.466  97.595  67.254  0.00  0.00    -0.271 OA
ATOM     71  N   ALA A  19      23.584  96.060  65.658  0.00  0.00    -0.338 N 
ATOM     72  H   ALA A  19      23.471  95.127  65.390  0.00  0.00     0.164 HD
BRANCH  71  73
ATOM     73  CA  ALA A  19      24.042  97.065  64.682  0.00  0.00     0.159 C 
ATOM     74  CB  ALA A  19      24.402  96.339  63.372  0.00  0.00     0.034 C 
BRANCH  73  75
ATOM     75  C   ALA A  19      23.006  98.148  64.361  0.00  0.00     0.251 C 
ATOM     76  N   VAL A  20      21.745  97.755  64.189  0.00  0.00    -0.339 N 
ATOM     77  H   VAL A  20      21.510  96.811  64.281  0.00  0.00     0.164 HD
ATOM     78  O   ALA A  19      23.347  99.331  64.277  0.00  0.00    -0.271 OA
BRANCH  76  79
ATOM     79  CA  VAL A  20      20.713  98.735  63.864  0.00  0.00     0.145 C 
BRANCH  79  80
ATOM     80  CB  VAL A  20      19.464  97.992  63.353  0.00  0.00     0.028 C 
ATOM     81  CG2 VAL A  20      19.725  97.282  62.034  0.00  0.00     0.002 C 
ATOM     82  CG1 VAL A  20      18.293  98.934  63.129  0.00  0.00     0.002 C 
ENDBRANCH  79  80
BRANCH  79  83
ATOM     83  C   VAL A  20      20.320  99.577  65.076  0.00  0.00     0.229 C 
ATOM     84  O   VAL A  20      19.467 100.462  64.965  0.00  0.00    -0.286 OA
ENDBRANCH  79  83
ENDBRANCH  76  79
ENDBRANCH  73  75
ENDBRANCH  71  73
ENDBRANCH  68  69
BRANCH  68  85
ATOM     85  CB  LYS A  18      23.964  94.569  68.403  0.00  0.00     0.032 C 
BRANCH  85  86
ATOM     86  CG  LYS A  18      23.549  93.697  69.578  0.00  0.00     0.005 C 
BRANCH  86  87
ATOM     87  CD  LYS A  18      24.712  92.884  70.123  0.00  0.00     0.041 C 
BRANCH  87  88
ATOM     88  CE  LYS A  18      24.297  92.013  71.297  0.00  0.00     0.338 C 
ATOM     89  NZ  LYS A  18      25.429  91.222  71.827  0.00  0.00     0.618 N 
ENDBRANCH  87  88
ENDBRANCH  86  87
ENDBRANCH  85  86
ENDBRANCH  68  85
ENDBRANCH  66  68
ENDBRANCH  59  64
ENDBRANCH  57  59
ENDBRANCH  54  55
ENDBRANCH  51  54
ENDBRANCH  49  50
ENDBRANCH  46  49
ENDBRANCH  41  45
ENDBRANCH  38  41
ENDBRANCH  32  37
ENDBRANCH  29  32
ENDBRANCH  20  28
ENDBRANCH  17  20
ENDBRANCH  11  16
ENDBRANCH   9  11
ENDBRANCH   1   7
BRANCH   1  90
ATOM     90  N   LYS A  10      19.940  82.579  65.576  0.00  0.00    -0.338 N 
ATOM     91  C   VAL A   9      20.018  83.062  64.344  0.00  0.00     0.251 C 
ATOM     92  O   VAL A   9      19.910  84.269  64.075  0.00  0.00    -0.271 OA
ATOM     93  H   LYS A  10      19.981  81.613  65.717  0.00  0.00     0.164 HD
BRANCH  91  94
ATOM     94  CA  VAL A   9      20.232  82.031  63.259  0.00  0.00     0.159 C 
BRANCH  94  95
ATOM     95  N   VAL A   9      21.288  81.067  63.559  0.00  0.00    -0.338 N 
ATOM     96  H   VAL A   9      21.063  80.122  63.666  0.00  0.00     0.164 HD
ATOM     97  C   LYS A   8      22.556  81.463  63.688  0.00  0.00     0.251 C 
ATOM     98  O   LYS A   8      22.900  82.638  63.565  0.00  0.00    -0.271 OA
BRANCH  97  99
ATOM     99  CA  LYS A   8      23.683  80.411  63.971  0.00  0.00     0.159 C 
BRANCH  99 100
ATOM    100  CB  LYS A   8      24.119  79.774  62.639  0.00  0.00     0.032 C 
BRANCH 100 101
ATOM    101  CG  LYS A   8      25.382  78.943  62.792  0.00  0.00     0.005 C 
BRANCH 101 102
ATOM    102  CD  LYS A   8      25.827  78.333  61.472  0.00  0.00     0.041 C 
BRANCH 102 103
ATOM    103  CE  LYS A   8      27.090  77.502  61.626  0.00  0.00     0.338 C 
ATOM    104  NZ  LYS A   8      27.523  76.909  60.341  0.00  0.00     0.618 N 
ENDBRANCH 102 103
ENDBRANCH 101 102
ENDBRANCH 100 101
ENDBRANCH  99 100
BRANCH  99 105
ATOM    105  N   LYS A   8      23.214  79.367  64.867  0.00  0.00    -0.337 N 
ATOM    106  C   GLY A   7      23.124  79.599  66.171  0.00  0.00     0.253 C 
ATOM    107  O   GLY A   7      23.416  80.682  66.674  0.00  0.00    -0.270 OA
ATOM    108  H   LYS A   8      22.964  78.493  64.507  0.00  0.00     0.164 HD
BRANCH 106 109
ATOM    109  CA  GLY A   7      22.622  78.430  67.026  0.00  0.00     0.189 C 
BRANCH 109 110
ATOM    110  N   GLY A   7      21.407  77.826  66.433  0.00  0.00    -0.336 N 
ATOM    111  H   GLY A   7      21.396  76.869  66.234  0.00  0.00     0.164 HD
ATOM    112  C   TRP A   6      20.328  78.567  66.165  0.00  0.00     0.251 C 
ATOM    113  O   TRP A   6      20.297  79.797  66.251  0.00  0.00    -0.271 OA
BRANCH 112 114
ATOM    114  CA  TRP A   6      19.147  77.876  65.591  0.00  0.00     0.164 C 
BRANCH 114 115
ATOM    115  N   TRP A   6      19.417  76.580  64.993  0.00  0.00    -0.338 N 
ATOM    116  H   TRP A   6      18.999  75.785  65.377  0.00  0.00     0.164 HD
ATOM    117  C   PRO A   5      20.215  76.445  63.943  0.00  0.00     0.246 C 
ATOM    118  O   PRO A   5      20.778  77.397  63.394  0.00  0.00    -0.271 OA
BRANCH 117 119
ATOM    119  CA  PRO A   5      20.454  75.065  63.456  0.00  0.00     0.143 C 
ATOM    120  CB  PRO A   5      21.719  74.421  64.052  0.00  0.00     0.027 C 
ATOM    121  CG  PRO A   5      22.396  73.746  62.844  0.00  0.00     0.020 C 
ATOM    122  CD  PRO A   5      22.006  74.651  61.672  0.00  0.00     0.080 C 
ATOM    123  N   PRO A   5      20.678  75.363  62.048  0.00  0.00    -0.215 NA
ATOM    124  C   ILE A   4      19.756  75.073  61.132  0.00  0.00     0.234 C 
ATOM    125  O   ILE A   4      18.683  74.521  61.410  0.00  0.00    -0.277 OA
BRANCH 124 126
ATOM    126  CA  ILE A   4      19.982  75.752  59.749  0.00  0.00     0.154 C 
BRANCH 126 127
ATOM    127  N   ILE A   4      19.339  75.300  58.514  0.00  0.00    -0.338 N 
ATOM    128  C   LYS A   3      18.421  74.349  58.524  0.00  0.00     0.251 C 
ATOM    129  O   LYS A   3      18.094  73.787  59.546  0.00  0.00    -0.271 OA
ATOM    130  H   ILE A   4      19.593  75.712  57.664  0.00  0.00     0.164 HD
BRANCH 128 131
ATOM    131  CA  LYS A   3      17.774  73.950  57.213  0.00  0.00     0.159 C 
BRANCH 131 132
ATOM    132  CB  LYS A   3      18.416  72.637  56.729  0.00  0.00     0.032 C 
BRANCH 132 133
ATOM    133  CG  LYS A   3      17.642  72.015  55.578  0.00  0.00     0.005 C 
BRANCH 133 134
ATOM    134  CD  LYS A   3      18.263  70.707  55.116  0.00  0.00     0.041 C 
BRANCH 134 135
ATOM    135  CE  LYS A   3      17.489  70.085  53.965  0.00  0.00     0.338 C 
ATOM    136  NZ  LYS A   3      18.093  68.811  53.515  0.00  0.00     0.618 N 
ENDBRANCH 134 135
ENDBRANCH 133 134
ENDBRANCH 132 133
ENDBRANCH 131 132
BRANCH 131 137
ATOM    137  N   LYS A   3      17.933  74.956  56.178  0.00  0.00    -0.338 N 
ATOM    138  C   ILE A   2      17.208  76.066  56.194  0.00  0.00     0.251 C 
ATOM    139  O   ILE A   2      16.396  76.296  57.099  0.00  0.00    -0.271 OA
ATOM    140  H   LYS A   3      18.582  74.812  55.462  0.00  0.00     0.164 HD
BRANCH 138 141
ATOM    141  CA  ILE A   2      17.395  77.051  55.052  0.00  0.00     0.159 C 
BRANCH 141 142
ATOM    142  N   ILE A   2      16.217  77.004  54.211  0.00  0.00    -0.337 N 
ATOM    143  H   ILE A   2      15.541  77.704  54.307  0.00  0.00     0.164 HD
ATOM    144  C   LYS A   1      16.022  76.038  53.310  0.00  0.00     0.252 C 
ATOM    145  O   LYS A   1      16.898  75.225  53.022  0.00  0.00    -0.270 OA
BRANCH 144 146
ATOM    146  CA  LYS A   1      14.668  75.971  52.622  0.00  0.00     0.172 C 
BRANCH 146 147
ATOM    147  CB  LYS A   1      14.113  74.537  52.712  0.00  0.00     0.033 C 
BRANCH 147 148
ATOM    148  CG  LYS A   1      12.665  74.457  52.255  0.00  0.00     0.005 C 
BRANCH 148 149
ATOM    149  CD  LYS A   1      12.110  73.047  52.366  0.00  0.00     0.041 C 
BRANCH 149 150
ATOM    150  CE  LYS A   1      10.663  72.967  51.909  0.00  0.00     0.338 C 
ATOM    151  NZ  LYS A   1      10.122  71.593  52.017  0.00  0.00     0.618 N 
ENDBRANCH 149 150
ENDBRANCH 148 149
ENDBRANCH 147 148
ENDBRANCH 146 147
BRANCH 146 152
ATOM    152  N   LYS A   1      14.834  76.342  51.241  0.00  0.00    -0.316 NA
ATOM    153  H   LYS A   1      14.029  76.355  50.616  0.00  0.00     0.181 HD
ENDBRANCH 146 152
ENDBRANCH 144 146
ENDBRANCH 141 142
BRANCH 141 154
ATOM    154  CB  ILE A   2      17.577  78.471  55.618  0.00  0.00     0.029 C 
ATOM    155  CG2 ILE A   2      18.212  79.371  54.570  0.00  0.00     0.002 C 
BRANCH 154 156
ATOM    156  CG1 ILE A   2      16.254  79.091  56.037  0.00  0.00     0.002 C 
ATOM    157  CD  ILE A   2      15.788  78.483  57.349  0.00  0.00     0.000 C 
ENDBRANCH 154 156
ENDBRANCH 141 154
ENDBRANCH 138 141
ENDBRANCH 131 137
ENDBRANCH 128 131
ENDBRANCH 126 127
BRANCH 126 158
ATOM    158  CB  ILE A   4      19.565  77.223  59.930  0.00  0.00     0.029 C 
ATOM    159  CG2 ILE A   4      20.252  78.090  58.887  0.00  0.00     0.002 C 
BRANCH 158 160
ATOM    160  CG1 ILE A   4      18.063  77.411  59.789  0.00  0.00     0.002 C 
ATOM    161  CD  ILE A   4      17.378  77.128  61.116  0.00  0.00     0.000 C 
ENDBRANCH 158 160
ENDBRANCH 126 158
ENDBRANCH 124 126
ENDBRANCH 117 119
ENDBRANCH 114 115
BRANCH 114 162
ATOM    162  CB  TRP A   6      18.118  77.677  66.719  0.00  0.00     0.060 C 
BRANCH 162 163
ATOM    163  CG  TRP A   6      16.740  77.258  66.175  0.00  0.00     0.001 A 
ATOM    164  CD2 TRP A   6      15.744  78.138  65.546  0.00  0.00     0.015 A 
ATOM    165  CE2 TRP A   6      14.670  77.355  65.214  0.00  0.00     0.081 A 
ATOM    166  CE3 TRP A   6      15.725  79.480  65.270  0.00  0.00     0.001 A 
ATOM    167  CZ2 TRP A   6      13.577  77.914  64.605  0.00  0.00     0.019 A 
ATOM    168  NE1 TRP A   6      14.948  76.049  65.602  0.00  0.00    -0.244 NA
ATOM    169  CH2 TRP A   6      13.558  79.255  64.329  0.00  0.00     0.002 A 
ATOM    170  CZ3 TRP A   6      14.632  80.038  64.661  0.00  0.00     0.000 A 
ATOM    171  CD1 TRP A   6      16.208  75.996  66.186  0.00  0.00     0.095 A 
ENDBRANCH 162 163
ENDBRANCH 114 162
ENDBRANCH 112 114
ENDBRANCH 109 110
ENDBRANCH 106 109
ENDBRANCH  99 105
ENDBRANCH  97  99
ENDBRANCH  94  95
BRANCH  94 172
ATOM    172  CB  VAL A   9      18.913  81.262  63.056  0.00  0.00     0.029 C 
ATOM    173  CG1 VAL A   9      17.732  82.198  62.861  0.00  0.00     0.002 C 
ATOM    174  CG2 VAL A   9      18.967  80.350  61.841  0.00  0.00     0.002 C 
ENDBRANCH  94 172
ENDBRANCH  91  94
ENDBRANCH   1  90
TORSDOF 77
